<?xml version="1.0" encoding="UTF-8"?>

<!-- generated on 2024-07-21 15:48:55 by Eclipse SUMO GUI Version 1.18.0
<configuration xmlns:xsi="http://www.w3.org/2001/XMLSchema-instance" xsi:noNamespaceSchemaLocation="http://sumo.dlr.de/xsd/sumoConfiguration.xsd">

    <input>
        <net-file value="maps/city1.net.xml"/>
        <route-files value="maps/city1.rou.xml"/>
    </input>

    <output>
        <tripinfo-output value="tripinfo.xml"/>
    </output>

    <time>
        <begin value="0"/>
        <end value="200"/>
    </time>

    <report>
        <verbose value="true"/>
        <no-step-log value="true"/>
    </report>

    <traci_server>
        <remote-port value="46489"/>
    </traci_server>

</configuration>
-->

<tripinfos xmlns:xsi="http://www.w3.org/2001/XMLSchema-instance" xsi:noNamespaceSchemaLocation="http://sumo.dlr.de/xsd/tripinfo_file.xsd">
    <tripinfo id="13" depart="13.00" departLane="-gneE14_0" departPos="5.10" departSpeed="0.00" departDelay="0.00" arrival="23.00" arrivalLane="-gneE14_0" arrivalPos="89.60" arrivalSpeed="14.27" duration="10.00" routeLength="84.50" waitingTime="0.00" waitingCount="0" stopTime="0.00" timeLoss="3.61" rerouteNo="0" devices="tripinfo_13" vType="DEFAULT_VEHTYPE" speedFactor="1.09" vaporized=""/>
    <tripinfo id="30" depart="30.00" departLane="gneE9_0" departPos="5.10" departSpeed="0.00" departDelay="0.00" arrival="71.00" arrivalLane="gneE2_0" arrivalPos="185.60" arrivalSpeed="8.01" duration="41.00" routeLength="379.13" waitingTime="1.00" waitingCount="1" stopTime="0.00" timeLoss="11.91" rerouteNo="0" devices="tripinfo_30" vType="DEFAULT_VEHTYPE" speedFactor="0.97" vaporized=""/>
    <tripinfo id="53" depart="53.00" departLane="-gneE18_0" departPos="5.10" departSpeed="0.00" departDelay="0.00" arrival="84.00" arrivalLane="-gneE5_0" arrivalPos="85.60" arrivalSpeed="7.37" duration="31.00" routeLength="275.23" waitingTime="0.00" waitingCount="0" stopTime="0.00" timeLoss="7.73" rerouteNo="0" devices="tripinfo_53" vType="DEFAULT_VEHTYPE" speedFactor="0.90" vaporized=""/>
    <tripinfo id="25" depart="25.00" departLane="-gneE34_0" departPos="5.10" departSpeed="0.00" departDelay="0.00" arrival="85.00" arrivalLane="-gneE22_0" arrivalPos="85.60" arrivalSpeed="6.53" duration="60.00" routeLength="580.18" waitingTime="0.00" waitingCount="0" stopTime="0.00" timeLoss="13.75" rerouteNo="0" devices="tripinfo_25" vType="DEFAULT_VEHTYPE" speedFactor="0.94" vaporized=""/>
    <tripinfo id="52" depart="52.00" departLane="-gneE29_0" departPos="5.10" departSpeed="0.00" departDelay="0.00" arrival="89.00" arrivalLane="gneE21_0" arrivalPos="87.62" arrivalSpeed="15.29" duration="37.00" routeLength="413.15" waitingTime="0.00" waitingCount="0" stopTime="0.00" timeLoss="8.75" rerouteNo="0" devices="tripinfo_52" vType="DEFAULT_VEHTYPE" speedFactor="1.10" vaporized=""/>
    <tripinfo id="90" depart="90.00" departLane="gneE23_0" departPos="5.10" departSpeed="0.00" departDelay="0.00" arrival="100.00" arrivalLane="gneE23_0" arrivalPos="89.60" arrivalSpeed="13.60" duration="10.00" routeLength="84.50" waitingTime="0.00" waitingCount="0" stopTime="0.00" timeLoss="3.22" rerouteNo="0" devices="tripinfo_90" vType="DEFAULT_VEHTYPE" speedFactor="1.02" vaporized=""/>
    <tripinfo id="20" depart="20.00" departLane="gneE22_0" departPos="5.10" departSpeed="0.00" departDelay="0.00" arrival="107.00" arrivalLane="-gneE10_0" arrivalPos="96.80" arrivalSpeed="12.85" duration="87.00" routeLength="579.33" waitingTime="28.00" waitingCount="1" stopTime="0.00" timeLoss="40.49" rerouteNo="0" devices="tripinfo_20" vType="DEFAULT_VEHTYPE" speedFactor="0.93" vaporized=""/>
    <tripinfo id="56" depart="56.00" departLane="gneE0_0" departPos="5.10" departSpeed="0.00" departDelay="0.00" arrival="107.00" arrivalLane="-gneE20_0" arrivalPos="92.80" arrivalSpeed="13.95" duration="51.00" routeLength="284.16" waitingTime="20.00" waitingCount="1" stopTime="0.00" timeLoss="30.65" rerouteNo="0" devices="tripinfo_56" vType="DEFAULT_VEHTYPE" speedFactor="1.09" vaporized=""/>
    <tripinfo id="38" depart="38.00" departLane="gneE4_0" departPos="5.10" departSpeed="0.00" departDelay="0.00" arrival="108.00" arrivalLane="-gneE7_0" arrivalPos="92.80" arrivalSpeed="12.64" duration="70.00" routeLength="587.17" waitingTime="5.00" waitingCount="2" stopTime="0.00" timeLoss="20.58" rerouteNo="0" devices="tripinfo_38" vType="DEFAULT_VEHTYPE" speedFactor="0.92" vaporized=""/>
    <tripinfo id="26" depart="26.00" departLane="-gneE29_0" departPos="5.10" departSpeed="0.00" departDelay="0.00" arrival="119.00" arrivalLane="gneE5_0" arrivalPos="85.60" arrivalSpeed="12.42" duration="93.00" routeLength="707.67" waitingTime="16.00" waitingCount="1" stopTime="0.00" timeLoss="35.40" rerouteNo="0" devices="tripinfo_26" vType="DEFAULT_VEHTYPE" speedFactor="0.94" vaporized=""/>
    <tripinfo id="47" depart="50.00" departLane="-gneE13_0" departPos="5.10" departSpeed="0.00" departDelay="3.00" arrival="122.00" arrivalLane="-gneE38_0" arrivalPos="296.80" arrivalSpeed="16.23" duration="72.00" routeLength="490.87" waitingTime="24.00" waitingCount="1" stopTime="0.00" timeLoss="41.39" rerouteNo="0" devices="tripinfo_47" vType="DEFAULT_VEHTYPE" speedFactor="1.17" vaporized=""/>
    <tripinfo id="4" depart="4.00" departLane="-gneE5_0" departPos="5.10" departSpeed="0.00" departDelay="0.00" arrival="123.00" arrivalLane="-gneE1_0" arrivalPos="85.60" arrivalSpeed="13.63" duration="119.00" routeLength="374.92" waitingTime="77.00" waitingCount="2" stopTime="0.00" timeLoss="90.40" rerouteNo="0" devices="tripinfo_4" vType="DEFAULT_VEHTYPE" speedFactor="1.01" vaporized=""/>
    <tripinfo id="6" depart="6.00" departLane="-gneE10_0" departPos="5.10" departSpeed="0.00" departDelay="0.00" arrival="123.00" arrivalLane="-gneE21_0" arrivalPos="87.62" arrivalSpeed="13.99" duration="117.00" routeLength="780.42" waitingTime="35.00" waitingCount="2" stopTime="0.00" timeLoss="60.89" rerouteNo="0" devices="tripinfo_6" vType="DEFAULT_VEHTYPE" speedFactor="1.03" vaporized=""/>
    <tripinfo id="86" depart="86.00" departLane="-gneE8_0" departPos="5.10" departSpeed="0.00" departDelay="0.00" arrival="124.00" arrivalLane="gneE3_0" arrivalPos="185.60" arrivalSpeed="11.21" duration="38.00" routeLength="375.13" waitingTime="0.00" waitingCount="0" stopTime="0.00" timeLoss="6.06" rerouteNo="0" devices="tripinfo_86" vType="DEFAULT_VEHTYPE" speedFactor="0.88" vaporized=""/>
    <tripinfo id="7" depart="7.00" departLane="gneE19_0" departPos="5.10" departSpeed="0.00" departDelay="0.00" arrival="125.00" arrivalLane="gneE11_0" arrivalPos="92.80" arrivalSpeed="10.70" duration="118.00" routeLength="678.58" waitingTime="36.00" waitingCount="3" stopTime="0.00" timeLoss="55.97" rerouteNo="0" devices="tripinfo_7" vType="DEFAULT_VEHTYPE" speedFactor="0.83" vaporized=""/>
    <tripinfo id="51" depart="51.00" departLane="gneE20_0" departPos="5.10" departSpeed="0.00" departDelay="0.00" arrival="126.00" arrivalLane="gneE11_0" arrivalPos="92.80" arrivalSpeed="13.92" duration="75.00" routeLength="584.16" waitingTime="22.00" waitingCount="1" stopTime="0.00" timeLoss="37.99" rerouteNo="0" devices="tripinfo_51" vType="DEFAULT_VEHTYPE" speedFactor="1.18" vaporized=""/>
    <tripinfo id="16" depart="16.00" departLane="gneE10_0" departPos="5.10" departSpeed="0.00" departDelay="0.00" arrival="129.00" arrivalLane="gneE8_0" arrivalPos="85.60" arrivalSpeed="14.17" duration="113.00" routeLength="683.97" waitingTime="46.00" waitingCount="1" stopTime="0.00" timeLoss="63.29" rerouteNo="0" devices="tripinfo_16" vType="DEFAULT_VEHTYPE" speedFactor="1.05" vaporized=""/>
    <tripinfo id="85" depart="85.00" departLane="gneE5_0" departPos="5.10" departSpeed="0.00" departDelay="0.00" arrival="129.00" arrivalLane="gneE13_0" arrivalPos="92.80" arrivalSpeed="12.62" duration="44.00" routeLength="287.49" waitingTime="11.00" waitingCount="1" stopTime="0.00" timeLoss="20.29" rerouteNo="0" devices="tripinfo_85" vType="DEFAULT_VEHTYPE" speedFactor="0.94" vaporized=""/>
    <tripinfo id="0" depart="0.00" departLane="gneE18_0" departPos="5.10" departSpeed="0.00" departDelay="0.00" arrival="133.00" arrivalLane="-gneE1_0" arrivalPos="85.60" arrivalSpeed="13.89" duration="133.00" routeLength="682.01" waitingTime="61.00" waitingCount="2" stopTime="0.00" timeLoss="83.90" rerouteNo="0" devices="tripinfo_0" vType="DEFAULT_VEHTYPE" speedFactor="1.06" vaporized=""/>
    <tripinfo id="35" depart="35.00" departLane="-gneE25_0" departPos="5.10" departSpeed="0.00" departDelay="0.00" arrival="134.00" arrivalLane="gneE6_0" arrivalPos="92.80" arrivalSpeed="11.85" duration="99.00" routeLength="477.06" waitingTime="36.00" waitingCount="2" stopTime="0.00" timeLoss="56.92" rerouteNo="0" devices="tripinfo_35" vType="DEFAULT_VEHTYPE" speedFactor="0.87" vaporized=""/>
    <tripinfo id="9" depart="9.00" departLane="gneE3_0" departPos="5.10" departSpeed="0.00" departDelay="0.00" arrival="139.00" arrivalLane="-gneE0_0" arrivalPos="92.80" arrivalSpeed="11.76" duration="130.00" routeLength="671.38" waitingTime="56.00" waitingCount="1" stopTime="0.00" timeLoss="72.04" rerouteNo="0" devices="tripinfo_9" vType="DEFAULT_VEHTYPE" speedFactor="0.89" vaporized=""/>
    <tripinfo id="127" depart="131.00" departLane="gneE9_0" departPos="5.10" departSpeed="0.00" departDelay="4.00" arrival="141.00" arrivalLane="gneE9_0" arrivalPos="89.60" arrivalSpeed="11.34" duration="10.00" routeLength="84.50" waitingTime="0.00" waitingCount="0" stopTime="0.00" timeLoss="2.75" rerouteNo="0" devices="tripinfo_127" vType="DEFAULT_VEHTYPE" speedFactor="0.91" vaporized=""/>
    <tripinfo id="27" depart="27.00" departLane="gneE19_0" departPos="5.10" departSpeed="0.00" departDelay="0.00" arrival="147.00" arrivalLane="gneE17_0" arrivalPos="92.80" arrivalSpeed="15.25" duration="120.00" routeLength="585.39" waitingTime="63.00" waitingCount="1" stopTime="0.00" timeLoss="81.37" rerouteNo="0" devices="tripinfo_27" vType="DEFAULT_VEHTYPE" speedFactor="1.16" vaporized=""/>
    <tripinfo id="88" depart="89.00" departLane="-gneE17_0" departPos="5.10" departSpeed="0.00" departDelay="1.00" arrival="151.00" arrivalLane="-gneE5_0" arrivalPos="85.60" arrivalSpeed="8.00" duration="62.00" routeLength="182.33" waitingTime="30.00" waitingCount="2" stopTime="0.00" timeLoss="46.29" rerouteNo="0" devices="tripinfo_88" vType="DEFAULT_VEHTYPE" speedFactor="0.91" vaporized=""/>
    <tripinfo id="55" depart="55.00" departLane="gneE38_0" departPos="5.10" departSpeed="0.00" departDelay="0.00" arrival="152.00" arrivalLane="-gneE25_0" arrivalPos="92.80" arrivalSpeed="12.53" duration="97.00" routeLength="880.23" waitingTime="7.00" waitingCount="2" stopTime="0.00" timeLoss="27.63" rerouteNo="0" devices="tripinfo_55" vType="DEFAULT_VEHTYPE" speedFactor="0.96" vaporized=""/>
    <tripinfo id="44" depart="44.00" departLane="-gneE14_0" departPos="5.10" departSpeed="0.00" departDelay="0.00" arrival="153.00" arrivalLane="-gneE11_0" arrivalPos="92.80" arrivalSpeed="15.62" duration="109.00" routeLength="885.52" waitingTime="31.00" waitingCount="2" stopTime="0.00" timeLoss="51.13" rerouteNo="0" devices="tripinfo_44" vType="DEFAULT_VEHTYPE" speedFactor="1.15" vaporized=""/>
    <tripinfo id="5" depart="5.00" departLane="-gneE25_0" departPos="5.10" departSpeed="0.00" departDelay="0.00" arrival="154.00" arrivalLane="gneE1_0" arrivalPos="85.60" arrivalSpeed="14.57" duration="149.00" routeLength="774.81" waitingTime="71.00" waitingCount="2" stopTime="0.00" timeLoss="94.76" rerouteNo="0" devices="tripinfo_5" vType="DEFAULT_VEHTYPE" speedFactor="1.08" vaporized=""/>
    <tripinfo id="29" depart="31.00" departLane="-gneE22_0" departPos="5.10" departSpeed="0.00" departDelay="2.00" arrival="158.00" arrivalLane="-gneE38_0" arrivalPos="296.80" arrivalSpeed="13.68" duration="127.00" routeLength="883.56" waitingTime="40.00" waitingCount="1" stopTime="0.00" timeLoss="61.41" rerouteNo="0" devices="tripinfo_29" vType="DEFAULT_VEHTYPE" speedFactor="1.01" vaporized=""/>
    <tripinfo id="66" depart="67.00" departLane="gneE38_0" departPos="5.10" departSpeed="0.00" departDelay="1.00" arrival="159.00" arrivalLane="gneE6_0" arrivalPos="92.80" arrivalSpeed="10.95" duration="92.00" routeLength="690.87" waitingTime="11.00" waitingCount="1" stopTime="0.00" timeLoss="31.86" rerouteNo="0" devices="tripinfo_66" vType="DEFAULT_VEHTYPE" speedFactor="0.85" vaporized=""/>
    <tripinfo id="24" depart="24.00" departLane="gneE18_0" departPos="5.10" departSpeed="0.00" departDelay="0.00" arrival="160.00" arrivalLane="-gneE35_0" arrivalPos="292.80" arrivalSpeed="12.09" duration="136.00" routeLength="889.00" waitingTime="34.00" waitingCount="1" stopTime="0.00" timeLoss="59.78" rerouteNo="0" devices="tripinfo_24" vType="DEFAULT_VEHTYPE" speedFactor="0.88" vaporized=""/>
    <tripinfo id="117" depart="117.00" departLane="-gneE27_0" departPos="5.10" departSpeed="0.00" departDelay="0.00" arrival="162.00" arrivalLane="-gneE17_0" arrivalPos="92.80" arrivalSpeed="6.96" duration="45.00" routeLength="387.59" waitingTime="6.00" waitingCount="1" stopTime="0.00" timeLoss="16.29" rerouteNo="0" devices="tripinfo_117" vType="DEFAULT_VEHTYPE" speedFactor="1.02" vaporized=""/>
    <tripinfo id="49" depart="49.00" departLane="gneE8_0" departPos="5.10" departSpeed="0.00" departDelay="0.00" arrival="168.00" arrivalLane="gneE34_0" arrivalPos="85.60" arrivalSpeed="13.49" duration="119.00" routeLength="781.73" waitingTime="44.00" waitingCount="1" stopTime="0.00" timeLoss="61.98" rerouteNo="0" devices="tripinfo_49" vType="DEFAULT_VEHTYPE" speedFactor="1.02" vaporized=""/>
    <tripinfo id="17" depart="17.00" departLane="-gneE36_0" departPos="5.10" departSpeed="0.00" departDelay="0.00" arrival="171.00" arrivalLane="gneE12_0" arrivalPos="85.60" arrivalSpeed="9.59" duration="154.00" routeLength="687.49" waitingTime="79.00" waitingCount="3" stopTime="0.00" timeLoss="109.00" rerouteNo="0" devices="tripinfo_17" vType="DEFAULT_VEHTYPE" speedFactor="1.12" vaporized=""/>
    <tripinfo id="2" depart="2.00" departLane="gneE24_0" departPos="5.10" departSpeed="0.00" departDelay="0.00" arrival="173.00" arrivalLane="gneE23_0" arrivalPos="89.60" arrivalSpeed="12.87" duration="171.00" routeLength="768.59" waitingTime="79.00" waitingCount="3" stopTime="0.00" timeLoss="110.14" rerouteNo="0" devices="tripinfo_2" vType="DEFAULT_VEHTYPE" speedFactor="0.94" vaporized=""/>
    <tripinfo id="60" depart="60.00" departLane="gneE25_0" departPos="5.10" departSpeed="0.00" departDelay="0.00" arrival="175.00" arrivalLane="gneE11_0" arrivalPos="92.80" arrivalSpeed="14.97" duration="115.00" routeLength="589.00" waitingTime="51.00" waitingCount="2" stopTime="0.00" timeLoss="73.19" rerouteNo="0" devices="tripinfo_60" vType="DEFAULT_VEHTYPE" speedFactor="1.09" vaporized=""/>
    <tripinfo id="45" depart="45.00" departLane="-gneE18_0" departPos="5.10" departSpeed="0.00" departDelay="0.00" arrival="176.00" arrivalLane="gneE2_0" arrivalPos="185.60" arrivalSpeed="10.09" duration="131.00" routeLength="865.93" waitingTime="36.00" waitingCount="2" stopTime="0.00" timeLoss="66.17" rerouteNo="0" devices="tripinfo_45" vType="DEFAULT_VEHTYPE" speedFactor="1.01" vaporized=""/>
    <tripinfo id="138" depart="138.00" departLane="-gneE17_0" departPos="5.10" departSpeed="0.00" departDelay="0.00" arrival="177.00" arrivalLane="gneE12_0" arrivalPos="85.60" arrivalSpeed="11.06" duration="39.00" routeLength="187.49" waitingTime="7.00" waitingCount="1" stopTime="0.00" timeLoss="24.25" rerouteNo="0" devices="tripinfo_138" vType="DEFAULT_VEHTYPE" speedFactor="1.01" vaporized=""/>
    <tripinfo id="19" depart="19.00" departLane="gneE35_0" departPos="5.10" departSpeed="0.00" departDelay="0.00" arrival="178.00" arrivalLane="gneE13_0" arrivalPos="92.80" arrivalSpeed="13.33" duration="159.00" routeLength="789.32" waitingTime="78.00" waitingCount="3" stopTime="0.00" timeLoss="99.90" rerouteNo="0" devices="tripinfo_19" vType="DEFAULT_VEHTYPE" speedFactor="0.99" vaporized=""/>
    <tripinfo id="63" depart="63.00" departLane="-gneE10_0" departPos="5.10" departSpeed="0.00" departDelay="0.00" arrival="180.00" arrivalLane="gneE5_0" arrivalPos="85.60" arrivalSpeed="12.60" duration="117.00" routeLength="573.14" waitingTime="55.00" waitingCount="1" stopTime="0.00" timeLoss="74.12" rerouteNo="0" devices="tripinfo_63" vType="DEFAULT_VEHTYPE" speedFactor="1.00" vaporized=""/>
    <tripinfo id="141" depart="144.00" departLane="gneE18_0" departPos="5.10" departSpeed="0.00" departDelay="3.00" arrival="181.00" arrivalLane="-gneE25_0" arrivalPos="92.80" arrivalSpeed="13.09" duration="37.00" routeLength="284.16" waitingTime="0.00" waitingCount="0" stopTime="0.00" timeLoss="14.35" rerouteNo="0" devices="tripinfo_141" vType="DEFAULT_VEHTYPE" speedFactor="0.96" vaporized=""/>
    <tripinfo id="146" depart="147.00" departLane="gneE18_0" departPos="5.10" departSpeed="0.00" departDelay="1.00" arrival="183.00" arrivalLane="-gneE25_0" arrivalPos="92.80" arrivalSpeed="14.62" duration="36.00" routeLength="284.16" waitingTime="0.00" waitingCount="0" stopTime="0.00" timeLoss="15.91" rerouteNo="0" devices="tripinfo_146" vType="DEFAULT_VEHTYPE" speedFactor="1.10" vaporized=""/>
    <tripinfo id="134" depart="134.00" departLane="gneE19_0" departPos="5.10" departSpeed="0.00" departDelay="0.00" arrival="184.00" arrivalLane="-gneE0_0" arrivalPos="92.80" arrivalSpeed="12.61" duration="50.00" routeLength="394.48" waitingTime="5.00" waitingCount="1" stopTime="0.00" timeLoss="18.00" rerouteNo="0" devices="tripinfo_134" vType="DEFAULT_VEHTYPE" speedFactor="0.95" vaporized=""/>
    <tripinfo id="70" depart="71.00" departLane="-gneE8_0" departPos="5.10" departSpeed="0.00" departDelay="1.00" arrival="185.00" arrivalLane="gneE12_0" arrivalPos="85.60" arrivalSpeed="12.91" duration="114.00" routeLength="469.76" waitingTime="65.00" waitingCount="1" stopTime="0.00" timeLoss="78.72" rerouteNo="0" devices="tripinfo_70" vType="DEFAULT_VEHTYPE" speedFactor="1.02" vaporized=""/>
    <tripinfo id="110" depart="110.00" departLane="gneE7_0" departPos="5.10" departSpeed="0.00" departDelay="0.00" arrival="187.00" arrivalLane="gneE14_0" arrivalPos="89.60" arrivalSpeed="15.76" duration="77.00" routeLength="580.85" waitingTime="12.00" waitingCount="1" stopTime="0.00" timeLoss="38.52" rerouteNo="0" devices="tripinfo_110" vType="DEFAULT_VEHTYPE" speedFactor="1.15" vaporized=""/>
    <tripinfo id="28" depart="28.00" departLane="-gneE22_0" departPos="5.10" departSpeed="0.00" departDelay="0.00" arrival="188.00" arrivalLane="gneE26_0" arrivalPos="92.80" arrivalSpeed="13.59" duration="160.00" routeLength="787.27" waitingTime="78.00" waitingCount="2" stopTime="0.00" timeLoss="101.40" rerouteNo="0" devices="tripinfo_28" vType="DEFAULT_VEHTYPE" speedFactor="1.02" vaporized=""/>
    <tripinfo id="107" depart="107.00" departLane="gneE7_0" departPos="5.10" departSpeed="0.00" departDelay="0.00" arrival="188.00" arrivalLane="gneE9_0" arrivalPos="89.60" arrivalSpeed="13.46" duration="81.00" routeLength="773.34" waitingTime="0.00" waitingCount="0" stopTime="0.00" timeLoss="23.41" rerouteNo="0" devices="tripinfo_107" vType="DEFAULT_VEHTYPE" speedFactor="1.02" vaporized=""/>
    <tripinfo id="148" depart="149.00" departLane="-gneE5_0" departPos="5.10" departSpeed="0.00" departDelay="1.00" arrival="189.00" arrivalLane="-gneE0_0" arrivalPos="92.80" arrivalSpeed="14.88" duration="40.00" routeLength="487.49" waitingTime="0.00" waitingCount="0" stopTime="0.00" timeLoss="6.20" rerouteNo="0" devices="tripinfo_148" vType="DEFAULT_VEHTYPE" speedFactor="1.10" vaporized=""/>
    <tripinfo id="73" depart="73.00" departLane="gneE10_0" departPos="5.10" departSpeed="0.00" departDelay="0.00" arrival="190.00" arrivalLane="gneE26_0" arrivalPos="92.80" arrivalSpeed="12.74" duration="117.00" routeLength="491.90" waitingTime="64.00" waitingCount="2" stopTime="0.00" timeLoss="80.58" rerouteNo="0" devices="tripinfo_73" vType="DEFAULT_VEHTYPE" speedFactor="1.00" vaporized=""/>
    <tripinfo id="8" depart="8.00" departLane="-gneE26_0" departPos="5.10" departSpeed="0.00" departDelay="0.00" arrival="192.00" arrivalLane="gneE14_0" arrivalPos="89.60" arrivalSpeed="13.44" duration="184.00" routeLength="391.59" waitingTime="134.00" waitingCount="3" stopTime="0.00" timeLoss="155.65" rerouteNo="0" devices="tripinfo_8" vType="DEFAULT_VEHTYPE" speedFactor="1.05" vaporized=""/>
    <tripinfo id="68" depart="68.00" departLane="-gneE13_0" departPos="5.10" departSpeed="0.00" departDelay="0.00" arrival="192.00" arrivalLane="gneE28_0" arrivalPos="216.45" arrivalSpeed="15.54" duration="124.00" routeLength="798.93" waitingTime="34.00" waitingCount="3" stopTime="0.00" timeLoss="72.73" rerouteNo="0" devices="tripinfo_68" vType="DEFAULT_VEHTYPE" speedFactor="1.17" vaporized=""/>
    <tripinfo id="43" depart="43.00" departLane="gneE9_0" departPos="5.10" departSpeed="0.00" departDelay="0.00" arrival="195.00" arrivalLane="gneE1_0" arrivalPos="85.60" arrivalSpeed="15.33" duration="152.00" routeLength="778.50" waitingTime="80.00" waitingCount="2" stopTime="0.00" timeLoss="101.55" rerouteNo="0" devices="tripinfo_43" vType="DEFAULT_VEHTYPE" speedFactor="1.18" vaporized=""/>
    <tripinfo id="10" depart="12.00" departLane="gneE3_0" departPos="5.10" departSpeed="0.00" departDelay="2.00" arrival="196.00" arrivalLane="gneE24_0" arrivalPos="85.60" arrivalSpeed="6.03" duration="184.00" routeLength="669.65" waitingTime="96.00" waitingCount="4" stopTime="0.00" timeLoss="130.44" rerouteNo="0" devices="tripinfo_10" vType="DEFAULT_VEHTYPE" speedFactor="0.94" vaporized=""/>
    <tripinfo id="128" depart="129.00" departLane="-gneE13_0" departPos="5.10" departSpeed="0.00" departDelay="1.00" arrival="196.00" arrivalLane="-gneE22_0" arrivalPos="85.60" arrivalSpeed="5.28" duration="67.00" routeLength="476.85" waitingTime="7.00" waitingCount="1" stopTime="0.00" timeLoss="34.42" rerouteNo="0" devices="tripinfo_128" vType="DEFAULT_VEHTYPE" speedFactor="1.12" vaporized=""/>
    <tripinfo id="111" depart="120.00" departLane="gneE10_0" departPos="5.10" departSpeed="0.00" departDelay="9.00" arrival="197.00" arrivalLane="gneE27_0" arrivalPos="92.80" arrivalSpeed="12.68" duration="77.00" routeLength="486.53" waitingTime="22.00" waitingCount="1" stopTime="0.00" timeLoss="39.78" rerouteNo="0" devices="tripinfo_111" vType="DEFAULT_VEHTYPE" speedFactor="0.98" vaporized=""/>
    <tripinfo id="39" depart="40.00" departLane="-gneE28_0" departPos="5.10" departSpeed="0.00" departDelay="1.00" arrival="199.00" arrivalLane="-gneE24_0" arrivalPos="85.60" arrivalSpeed="12.81" duration="159.00" routeLength="1004.00" waitingTime="42.00" waitingCount="3" stopTime="0.00" timeLoss="79.06" rerouteNo="0" devices="tripinfo_39" vType="DEFAULT_VEHTYPE" speedFactor="0.95" vaporized=""/>
    <tripinfo id="72" depart="76.00" departLane="-gneE5_0" departPos="5.10" departSpeed="0.00" departDelay="4.00" arrival="199.00" arrivalLane="-gneE22_0" arrivalPos="85.60" arrivalSpeed="7.71" duration="123.00" routeLength="1053.74" waitingTime="9.00" waitingCount="2" stopTime="0.00" timeLoss="42.91" rerouteNo="0" devices="tripinfo_72" vType="DEFAULT_VEHTYPE" speedFactor="1.00" vaporized=""/>
    <tripinfo id="124" depart="124.00" departLane="gneE2_0" departPos="5.10" departSpeed="0.00" departDelay="0.00" arrival="199.00" arrivalLane="-gneE3_0" arrivalPos="185.60" arrivalSpeed="14.49" duration="75.00" routeLength="480.08" waitingTime="26.00" waitingCount="1" stopTime="0.00" timeLoss="41.94" rerouteNo="0" devices="tripinfo_124" vType="DEFAULT_VEHTYPE" speedFactor="1.09" vaporized=""/>
    <tripinfo id="164" depart="164.00" departLane="gneE3_0" departPos="5.10" departSpeed="0.00" departDelay="0.00" arrival="200.00" arrivalLane="gneE34_0" arrivalPos="85.60" arrivalSpeed="9.89" duration="36.00" routeLength="280.29" waitingTime="5.00" waitingCount="1" stopTime="0.00" timeLoss="16.89" rerouteNo="0" devices="tripinfo_164" vType="DEFAULT_VEHTYPE" speedFactor="1.10" vaporized=""/>
    <tripinfo id="15" depart="15.00" departLane="gneE3_0" departPos="5.10" departSpeed="0.00" departDelay="0.00" arrival="201.00" arrivalLane="gneE26_0" arrivalPos="92.80" arrivalSpeed="13.83" duration="186.00" routeLength="782.22" waitingTime="91.00" waitingCount="3" stopTime="0.00" timeLoss="129.15" rerouteNo="0" devices="tripinfo_15" vType="DEFAULT_VEHTYPE" speedFactor="1.03" vaporized=""/>
    <tripinfo id="102" depart="102.00" departLane="-gneE9_0" departPos="5.10" departSpeed="0.00" departDelay="0.00" arrival="201.00" arrivalLane="-gneE22_0" arrivalPos="85.60" arrivalSpeed="12.26" duration="99.00" routeLength="681.83" waitingTime="27.00" waitingCount="2" stopTime="0.00" timeLoss="47.07" rerouteNo="0" devices="tripinfo_102" vType="DEFAULT_VEHTYPE" speedFactor="0.98" vaporized=""/>
    <tripinfo id="33" depart="33.00" departLane="-gneE26_0" departPos="5.10" departSpeed="0.00" departDelay="0.00" arrival="204.00" arrivalLane="-gneE10_0" arrivalPos="96.80" arrivalSpeed="11.02" duration="171.00" routeLength="491.90" waitingTime="110.00" waitingCount="3" stopTime="0.00" timeLoss="127.93" rerouteNo="0" devices="tripinfo_33" vType="DEFAULT_VEHTYPE" speedFactor="0.83" vaporized=""/>
    <tripinfo id="131" depart="132.00" departLane="-gneE34_0" departPos="5.10" departSpeed="0.00" departDelay="1.00" arrival="207.00" arrivalLane="-gneE2_0" arrivalPos="185.60" arrivalSpeed="12.19" duration="75.00" routeLength="375.13" waitingTime="24.00" waitingCount="1" stopTime="0.00" timeLoss="45.04" rerouteNo="0" devices="tripinfo_131" vType="DEFAULT_VEHTYPE" speedFactor="0.96" vaporized=""/>
    <tripinfo id="94" depart="94.00" departLane="-gneE24_0" departPos="5.10" departSpeed="0.00" departDelay="0.00" arrival="208.00" arrivalLane="-gneE6_0" arrivalPos="92.80" arrivalSpeed="9.64" duration="114.00" routeLength="380.39" waitingTime="71.00" waitingCount="1" stopTime="0.00" timeLoss="85.02" rerouteNo="0" devices="tripinfo_94" vType="DEFAULT_VEHTYPE" speedFactor="0.97" vaporized=""/>
    <tripinfo id="67" depart="67.00" departLane="-gneE14_0" departPos="5.10" departSpeed="0.00" departDelay="0.00" arrival="213.00" arrivalLane="-gneE9_0" arrivalPos="89.60" arrivalSpeed="11.62" duration="146.00" routeLength="688.08" waitingTime="61.00" waitingCount="3" stopTime="0.00" timeLoss="86.37" rerouteNo="0" devices="tripinfo_67" vType="DEFAULT_VEHTYPE" speedFactor="0.85" vaporized=""/>
    <tripinfo id="126" depart="126.00" departLane="-gneE13_0" departPos="5.10" departSpeed="0.00" departDelay="0.00" arrival="213.00" arrivalLane="-gneE7_0" arrivalPos="92.80" arrivalSpeed="4.15" duration="87.00" routeLength="583.84" waitingTime="12.00" waitingCount="2" stopTime="0.00" timeLoss="42.26" rerouteNo="0" devices="tripinfo_126" vType="DEFAULT_VEHTYPE" speedFactor="1.01" vaporized=""/>
    <tripinfo id="64" depart="64.00" departLane="gneE38_0" departPos="5.10" departSpeed="0.00" departDelay="0.00" arrival="215.00" arrivalLane="gneE32_0" arrivalPos="219.65" arrivalSpeed="11.24" duration="151.00" routeLength="1210.15" waitingTime="14.00" waitingCount="2" stopTime="0.00" timeLoss="51.05" rerouteNo="0" devices="tripinfo_64" vType="DEFAULT_VEHTYPE" speedFactor="0.90" vaporized=""/>
    <tripinfo id="97" depart="97.00" departLane="-gneE6_0" departPos="5.10" departSpeed="0.00" departDelay="0.00" arrival="216.00" arrivalLane="gneE34_0" arrivalPos="85.60" arrivalSpeed="14.26" duration="119.00" routeLength="282.33" waitingTime="76.00" waitingCount="2" stopTime="0.00" timeLoss="98.96" rerouteNo="0" devices="tripinfo_97" vType="DEFAULT_VEHTYPE" speedFactor="1.06" vaporized=""/>
    <tripinfo id="31" depart="31.00" departLane="gneE11_0" departPos="5.10" departSpeed="0.00" departDelay="0.00" arrival="220.00" arrivalLane="gneE23_0" arrivalPos="89.60" arrivalSpeed="11.76" duration="189.00" routeLength="875.51" waitingTime="96.00" waitingCount="2" stopTime="0.00" timeLoss="117.31" rerouteNo="0" devices="tripinfo_31" vType="DEFAULT_VEHTYPE" speedFactor="0.89" vaporized=""/>
    <tripinfo id="112" depart="112.00" departLane="-gneE12_0" departPos="5.10" departSpeed="0.00" departDelay="0.00" arrival="220.00" arrivalLane="gneE14_0" arrivalPos="89.60" arrivalSpeed="12.67" duration="108.00" routeLength="668.38" waitingTime="28.00" waitingCount="3" stopTime="0.00" timeLoss="57.09" rerouteNo="0" devices="tripinfo_112" vType="DEFAULT_VEHTYPE" speedFactor="1.00" vaporized=""/>
    <tripinfo id="161" depart="161.00" departLane="gneE3_0" departPos="5.10" departSpeed="0.00" departDelay="0.00" arrival="223.00" arrivalLane="gneE36_0" arrivalPos="292.80" arrivalSpeed="13.10" duration="62.00" routeLength="582.12" waitingTime="5.00" waitingCount="1" stopTime="0.00" timeLoss="17.79" rerouteNo="0" devices="tripinfo_161" vType="DEFAULT_VEHTYPE" speedFactor="0.99" vaporized=""/>
    <tripinfo id="54" depart="54.00" departLane="-gneE7_0" departPos="5.10" departSpeed="0.00" departDelay="0.00" arrival="224.00" arrivalLane="gneE7_0" arrivalPos="92.80" arrivalSpeed="8.81" duration="170.00" routeLength="964.38" waitingTime="57.00" waitingCount="3" stopTime="0.00" timeLoss="99.60" rerouteNo="0" devices="tripinfo_54" vType="DEFAULT_VEHTYPE" speedFactor="1.03" vaporized=""/>
    <tripinfo id="179" depart="179.00" departLane="-gneE17_0" departPos="5.10" departSpeed="0.00" departDelay="0.00" arrival="227.00" arrivalLane="-gneE5_0" arrivalPos="85.60" arrivalSpeed="10.43" duration="48.00" routeLength="182.33" waitingTime="21.00" waitingCount="1" stopTime="0.00" timeLoss="34.60" rerouteNo="0" devices="tripinfo_179" vType="DEFAULT_VEHTYPE" speedFactor="1.07" vaporized=""/>
    <tripinfo id="80" depart="80.00" departLane="-gneE13_0" departPos="5.10" departSpeed="0.00" departDelay="0.00" arrival="228.00" arrivalLane="gneE2_0" arrivalPos="185.60" arrivalSpeed="4.72" duration="148.00" routeLength="678.61" waitingTime="62.00" waitingCount="2" stopTime="0.00" timeLoss="96.71" rerouteNo="0" devices="tripinfo_80" vType="DEFAULT_VEHTYPE" speedFactor="0.97" vaporized=""/>